# vsim -c -lib work_check_sanity_0330 tb -do "run -all; quit -f" 
# Start time: 22:06:33 on Mar 30,2026
# Loading work_check_sanity_0330.tb
# Loading work_check_sanity_0330.Top_Module
# Loading work_check_sanity_0330.RiscV_CPU
# Loading work_check_sanity_0330.Control_Path
# Loading work_check_sanity_0330.NonArch_Reg
# Loading work_check_sanity_0330.Main_Controller
# Loading work_check_sanity_0330.ALU_Controller
# Loading work_check_sanity_0330.Data_Path
# Loading work_check_sanity_0330.Adder
# Loading work_check_sanity_0330.Mux2
# Loading work_check_sanity_0330.Register_File
# Loading work_check_sanity_0330.Mux4
# Loading work_check_sanity_0330.Extend_Unit
# Loading work_check_sanity_0330.ALU
# Loading work_check_sanity_0330.Mux3
# Loading work_check_sanity_0330.Forwarding_Unit
# Loading work_check_sanity_0330.Stalling_Unit
# Loading work_check_sanity_0330.Instruction_Mem
# Loading work_check_sanity_0330.Data_mem
# run -all
# Time	PCF	PCD	PCE	PCM	PCW	Result
# 5000	xxxxxxxxxxxxxxxx	xxxxxxxxxxxxxxxx	xxxxxxxxxxxxxxxx	xxxxxxxxxxxxxxxx	xxxxxxxxxxxxxxxx	                   x
# 15000	0000000000000000	0000000000000000	0000000000000000	0000000000000000	0000000000000000	                   0
# 25000	0000000000000000	0000000000000000	0000000000000000	0000000000000000	0000000000000000	                   0
# 35000	0000000000000004	0000000000000000	0000000000000000	0000000000000000	0000000000000000	                   0
# 45000	0000000000000008	0000000000000004	0000000000000000	0000000000000000	0000000000000000	                   0
# 55000	000000000000000c	0000000000000008	0000000000000004	0000000000000000	0000000000000000	                   0
# 65000	0000000000000010	000000000000000c	0000000000000008	0000000000000004	0000000000000000	                   1
# 75000	0000000000000014	0000000000000010	000000000000000c	0000000000000008	0000000000000004	                  16
# 85000	0000000000000018	0000000000000014	0000000000000010	000000000000000c	0000000000000008	18446744073709551613
# 95000	000000000000001c	0000000000000018	0000000000000014	0000000000000010	000000000000000c	                   0
# 105000	0000000000000020	000000000000001c	0000000000000018	0000000000000014	0000000000000010	                   9
# 115000	0000000000000024	0000000000000020	000000000000001c	0000000000000018	0000000000000014	                  64
# 125000	0000000000000028	0000000000000024	0000000000000020	000000000000001c	0000000000000018	                   0
# 135000	000000000000002c	0000000000000028	0000000000000024	0000000000000020	000000000000001c	                   1
# 145000	0000000000000030	000000000000002c	0000000000000028	0000000000000024	0000000000000020	                   2
# 155000	0000000000000034	0000000000000030	000000000000002c	0000000000000028	0000000000000024	 2305843009213693951
# 165000	0000000000000038	0000000000000034	0000000000000030	000000000000002c	0000000000000028	18446744073709551615
# 175000	000000000000003c	0000000000000038	0000000000000034	0000000000000030	000000000000002c	18446744073709551615
# 185000	0000000000000040	000000000000003c	0000000000000038	0000000000000034	0000000000000030	                   1
# 195000	0000000000000044	0000000000000040	000000000000003c	0000000000000038	0000000000000034	18446744073709551614
# 205000	0000000000000048	0000000000000044	0000000000000040	000000000000003c	0000000000000038	18446744071562067968
# 215000	000000000000004c	0000000000000048	0000000000000044	0000000000000040	000000000000003c	                   1
# 225000	0000000000000050	000000000000004c	0000000000000048	0000000000000044	0000000000000040	18446744073709551615
# 235000	0000000000000054	0000000000000050	000000000000004c	0000000000000048	0000000000000044	                  17
# 245000	0000000000000058	0000000000000054	0000000000000050	000000000000004c	0000000000000048	                  15
# 255000	000000000000005c	0000000000000058	0000000000000054	0000000000000050	000000000000004c	                  32
# 265000	0000000000000060	000000000000005c	0000000000000058	0000000000000054	0000000000000050	                   0
# 275000	0000000000000064	0000000000000060	000000000000005c	0000000000000058	0000000000000054	                   1
# 285000	0000000000000068	0000000000000064	0000000000000060	000000000000005c	0000000000000058	                  17
# 295000	000000000000006c	0000000000000068	0000000000000064	0000000000000060	000000000000005c	                   8
# 305000	0000000000000070	000000000000006c	0000000000000068	0000000000000064	0000000000000060	                   8
# 315000	0000000000000074	0000000000000070	000000000000006c	0000000000000068	0000000000000064	                  17
# 325000	0000000000000078	0000000000000074	0000000000000070	000000000000006c	0000000000000068	                   0
# 335000	000000000000007c	0000000000000078	0000000000000074	0000000000000070	000000000000006c	                   0
# 345000	0000000000000080	000000000000007c	0000000000000078	0000000000000074	0000000000000070	18446744073709551601
# 355000	0000000000000084	0000000000000080	000000000000007c	0000000000000078	0000000000000074	                  32
# 365000	0000000000000088	0000000000000084	0000000000000080	000000000000007c	0000000000000078	          1073741824
# 375000	000000000000008c	0000000000000088	0000000000000084	0000000000000080	000000000000007c	18446744072635809792
# 385000	0000000000000090	000000000000008c	0000000000000088	0000000000000084	0000000000000080	            33554432
# 395000	0000000000000094	0000000000000090	000000000000008c	0000000000000088	0000000000000084	            33554564
# 405000	0000000000000098	0000000000000094	0000000000000090	000000000000008c	0000000000000088	           305418240
# 415000	000000000000009c	0000000000000098	0000000000000094	0000000000000090	000000000000008c	           305419896
# 425000	00000000000000a0	000000000000009c	0000000000000098	0000000000000094	0000000000000090	 1311768464867721216
# 435000	00000000000000a4	00000000000000a0	000000000000009c	0000000000000098	0000000000000094	                   1
# 445000	00000000000000a8	00000000000000a4	00000000000000a0	000000000000009c	0000000000000098	          2147483648
# 455000	00000000000000ac	00000000000000a8	00000000000000a4	00000000000000a0	000000000000009c	                   1
# 465000	00000000000000b0	00000000000000ac	00000000000000a8	00000000000000a4	00000000000000a0	          2147483649
# 📝 MEM WRITE: Addr=0000000000000021 Data=0000000000000001
# 475000	00000000000000b4	00000000000000b0	00000000000000ac	00000000000000a8	00000000000000a4	 1311768467015204865
# 📝 MEM WRITE: Addr=0000000000000026 Data=fffffffffffffffd
# 485000	00000000000000b8	00000000000000b4	00000000000000b0	00000000000000ac	00000000000000a8	                   x
# 📝 MEM WRITE: Addr=0000000000000028 Data=0000000000000010
# 495000	00000000000000bc	00000000000000b8	00000000000000b4	00000000000000b0	00000000000000ac	                   x
# 📝 MEM WRITE: Addr=0000000000000030 Data=1234567880000001
# 505000	00000000000000c0	00000000000000bc	00000000000000b8	00000000000000b4	00000000000000b0	                   x
# 515000	00000000000000c4	00000000000000c0	00000000000000bc	00000000000000b8	00000000000000b4	                   x
# 525000	00000000000000c8	00000000000000c4	00000000000000c0	00000000000000bc	00000000000000b8	                   1
# 535000	00000000000000cc	00000000000000c8	00000000000000c4	00000000000000c0	00000000000000bc	18446744073709551613
# 545000	00000000000000d0	00000000000000cc	00000000000000c8	00000000000000c4	00000000000000c0	                  16
# 555000	00000000000000d4	00000000000000d0	00000000000000cc	00000000000000c8	00000000000000c4	                   1
# 565000	00000000000000d8	00000000000000d4	00000000000000d0	00000000000000cc	00000000000000c8	               65533
# 575000	00000000000000dc	00000000000000d8	00000000000000d4	00000000000000d0	00000000000000cc	 1311768467015204865
# 585000	00000000000000e0	00000000000000dc	00000000000000d8	00000000000000d4	00000000000000d0	          2147483649
# 595000	00000000000000e4	00000000000000e0	00000000000000dc	00000000000000d8	00000000000000d4	                   0
# 605000	00000000000000e8	00000000000000e4	00000000000000e0	00000000000000dc	00000000000000d8	18446744073709551611
# 615000	00000000000000ec	00000000000000e8	00000000000000e4	00000000000000e0	00000000000000dc	                   5
# 625000	00000000000000f0	00000000000000ec	00000000000000e8	00000000000000e4	00000000000000e0	                   1
# 635000	00000000000000e0	0000000000000000	0000000000000000	00000000000000e8	00000000000000e4	18446744073709551612
# 645000	00000000000000e4	00000000000000e0	0000000000000000	0000000000000000	00000000000000e8	                   x
# 655000	00000000000000e8	00000000000000e4	00000000000000e0	0000000000000000	0000000000000000	                   0
# 665000	00000000000000ec	00000000000000e8	00000000000000e4	00000000000000e0	0000000000000000	                   0
# 675000	00000000000000f0	00000000000000ec	00000000000000e8	00000000000000e4	00000000000000e0	                   2
# 685000	00000000000000e0	0000000000000000	0000000000000000	00000000000000e8	00000000000000e4	18446744073709551613
# 695000	00000000000000e4	00000000000000e0	0000000000000000	0000000000000000	00000000000000e8	                   x
# 705000	00000000000000e8	00000000000000e4	00000000000000e0	0000000000000000	0000000000000000	                   0
# 715000	00000000000000ec	00000000000000e8	00000000000000e4	00000000000000e0	0000000000000000	                   0
# 725000	00000000000000f0	00000000000000ec	00000000000000e8	00000000000000e4	00000000000000e0	                   3
# 735000	00000000000000e0	0000000000000000	0000000000000000	00000000000000e8	00000000000000e4	18446744073709551614
# 745000	00000000000000e4	00000000000000e0	0000000000000000	0000000000000000	00000000000000e8	                   x
# 755000	00000000000000e8	00000000000000e4	00000000000000e0	0000000000000000	0000000000000000	                   0
# 765000	00000000000000ec	00000000000000e8	00000000000000e4	00000000000000e0	0000000000000000	                   0
# 775000	00000000000000f0	00000000000000ec	00000000000000e8	00000000000000e4	00000000000000e0	                   4
# 785000	00000000000000e0	0000000000000000	0000000000000000	00000000000000e8	00000000000000e4	18446744073709551615
# 795000	00000000000000e4	00000000000000e0	0000000000000000	0000000000000000	00000000000000e8	                   x
# 805000	00000000000000e8	00000000000000e4	00000000000000e0	0000000000000000	0000000000000000	                   0
# 815000	00000000000000ec	00000000000000e8	00000000000000e4	00000000000000e0	0000000000000000	                   0
# 825000	00000000000000f0	00000000000000ec	00000000000000e8	00000000000000e4	00000000000000e0	                   5
# 835000	00000000000000e0	0000000000000000	0000000000000000	00000000000000e8	00000000000000e4	                   0
# 845000	00000000000000e4	00000000000000e0	0000000000000000	0000000000000000	00000000000000e8	                   x
# 855000	00000000000000e8	00000000000000e4	00000000000000e0	0000000000000000	0000000000000000	                   0
# 865000	00000000000000ec	00000000000000e8	00000000000000e4	00000000000000e0	0000000000000000	                   0
# 875000	00000000000000f0	00000000000000ec	00000000000000e8	00000000000000e4	00000000000000e0	                   6
# 885000	00000000000000e0	0000000000000000	0000000000000000	00000000000000e8	00000000000000e4	                   1
# 895000	00000000000000e4	00000000000000e0	0000000000000000	0000000000000000	00000000000000e8	                   x
# 905000	00000000000000e8	00000000000000e4	00000000000000e0	0000000000000000	0000000000000000	                   0
# 915000	00000000000000ec	00000000000000e8	00000000000000e4	00000000000000e0	0000000000000000	                   0
# 925000	00000000000000f0	00000000000000ec	00000000000000e8	00000000000000e4	00000000000000e0	                   7
# 935000	00000000000000e0	0000000000000000	0000000000000000	00000000000000e8	00000000000000e4	                   2
# 945000	00000000000000e4	00000000000000e0	0000000000000000	0000000000000000	00000000000000e8	                   x
# 955000	00000000000000e8	00000000000000e4	00000000000000e0	0000000000000000	0000000000000000	                   0
# 965000	00000000000000ec	00000000000000e8	00000000000000e4	00000000000000e0	0000000000000000	                   0
# 975000	00000000000000f0	00000000000000ec	00000000000000e8	00000000000000e4	00000000000000e0	                   8
# 985000	00000000000000e0	0000000000000000	0000000000000000	00000000000000e8	00000000000000e4	                   3
# 995000	00000000000000e4	00000000000000e0	0000000000000000	0000000000000000	00000000000000e8	                   x
# 1005000	00000000000000e8	00000000000000e4	00000000000000e0	0000000000000000	0000000000000000	                   0
# 1015000	00000000000000ec	00000000000000e8	00000000000000e4	00000000000000e0	0000000000000000	                   0
# 1025000	00000000000000f0	00000000000000ec	00000000000000e8	00000000000000e4	00000000000000e0	                   9
# 1035000	00000000000000e0	0000000000000000	0000000000000000	00000000000000e8	00000000000000e4	                   4
# 1045000	00000000000000e4	00000000000000e0	0000000000000000	0000000000000000	00000000000000e8	                   x
# 1055000	00000000000000e8	00000000000000e4	00000000000000e0	0000000000000000	0000000000000000	                   0
# 1065000	00000000000000ec	00000000000000e8	00000000000000e4	00000000000000e0	0000000000000000	                   0
# 1075000	00000000000000f0	00000000000000ec	00000000000000e8	00000000000000e4	00000000000000e0	                  10
# 1085000	00000000000000f4	00000000000000f0	00000000000000ec	00000000000000e8	00000000000000e4	                   5
# 1095000	00000000000000f8	00000000000000f4	00000000000000f0	00000000000000ec	00000000000000e8	                   x
# 1105000	00000000000000fc	00000000000000f8	00000000000000f4	00000000000000f0	00000000000000ec	                   5
# 1115000	0000000000000100	00000000000000fc	00000000000000f8	00000000000000f4	00000000000000f0	                   0
# 1125000	0000000000000104	0000000000000100	00000000000000fc	00000000000000f8	00000000000000f4	18446744073709551611
# 1135000	0000000000000108	0000000000000104	0000000000000100	00000000000000fc	00000000000000f8	                   5
# 1145000	000000000000010c	0000000000000108	0000000000000104	0000000000000100	00000000000000fc	                   1
# 1155000	00000000000000fc	0000000000000000	0000000000000000	0000000000000104	0000000000000100	                   4
# 1165000	0000000000000100	00000000000000fc	0000000000000000	0000000000000000	0000000000000104	                   x
# 1175000	0000000000000104	0000000000000100	00000000000000fc	0000000000000000	0000000000000000	                   0
# 1185000	0000000000000108	0000000000000104	0000000000000100	00000000000000fc	0000000000000000	                   0
# 1195000	000000000000010c	0000000000000108	0000000000000104	0000000000000100	00000000000000fc	                   2
# 1205000	00000000000000fc	0000000000000000	0000000000000000	0000000000000104	0000000000000100	                   3
# 1215000	0000000000000100	00000000000000fc	0000000000000000	0000000000000000	0000000000000104	                   x
# 1225000	0000000000000104	0000000000000100	00000000000000fc	0000000000000000	0000000000000000	                   0
# 1235000	0000000000000108	0000000000000104	0000000000000100	00000000000000fc	0000000000000000	                   0
# 1245000	000000000000010c	0000000000000108	0000000000000104	0000000000000100	00000000000000fc	                   3
# 1255000	00000000000000fc	0000000000000000	0000000000000000	0000000000000104	0000000000000100	                   2
# 1265000	0000000000000100	00000000000000fc	0000000000000000	0000000000000000	0000000000000104	                   x
# 1275000	0000000000000104	0000000000000100	00000000000000fc	0000000000000000	0000000000000000	                   0
# 1285000	0000000000000108	0000000000000104	0000000000000100	00000000000000fc	0000000000000000	                   0
# 1295000	000000000000010c	0000000000000108	0000000000000104	0000000000000100	00000000000000fc	                   4
# 1305000	00000000000000fc	0000000000000000	0000000000000000	0000000000000104	0000000000000100	                   1
# 1315000	0000000000000100	00000000000000fc	0000000000000000	0000000000000000	0000000000000104	                   x
# 1325000	0000000000000104	0000000000000100	00000000000000fc	0000000000000000	0000000000000000	                   0
# 1335000	0000000000000108	0000000000000104	0000000000000100	00000000000000fc	0000000000000000	                   0
# 1345000	000000000000010c	0000000000000108	0000000000000104	0000000000000100	00000000000000fc	                   5
# 1355000	00000000000000fc	0000000000000000	0000000000000000	0000000000000104	0000000000000100	                   0
# 1365000	0000000000000100	00000000000000fc	0000000000000000	0000000000000000	0000000000000104	                   x
# 1375000	0000000000000104	0000000000000100	00000000000000fc	0000000000000000	0000000000000000	                   0
# 1385000	0000000000000108	0000000000000104	0000000000000100	00000000000000fc	0000000000000000	                   0
# 1395000	000000000000010c	0000000000000108	0000000000000104	0000000000000100	00000000000000fc	                   6
# 1405000	00000000000000fc	0000000000000000	0000000000000000	0000000000000104	0000000000000100	18446744073709551615
# 1415000	0000000000000100	00000000000000fc	0000000000000000	0000000000000000	0000000000000104	                   x
# 1425000	0000000000000104	0000000000000100	00000000000000fc	0000000000000000	0000000000000000	                   0
# 1435000	0000000000000108	0000000000000104	0000000000000100	00000000000000fc	0000000000000000	                   0
# 1445000	000000000000010c	0000000000000108	0000000000000104	0000000000000100	00000000000000fc	                   7
# 1455000	00000000000000fc	0000000000000000	0000000000000000	0000000000000104	0000000000000100	18446744073709551614
# 1465000	0000000000000100	00000000000000fc	0000000000000000	0000000000000000	0000000000000104	                   x
# 1475000	0000000000000104	0000000000000100	00000000000000fc	0000000000000000	0000000000000000	                   0
# 1485000	0000000000000108	0000000000000104	0000000000000100	00000000000000fc	0000000000000000	                   0
# 1495000	000000000000010c	0000000000000108	0000000000000104	0000000000000100	00000000000000fc	                   8
# 1505000	00000000000000fc	0000000000000000	0000000000000000	0000000000000104	0000000000000100	18446744073709551613
# 1515000	0000000000000100	00000000000000fc	0000000000000000	0000000000000000	0000000000000104	                   x
# 1525000	0000000000000104	0000000000000100	00000000000000fc	0000000000000000	0000000000000000	                   0
# 1535000	0000000000000108	0000000000000104	0000000000000100	00000000000000fc	0000000000000000	                   0
# 1545000	000000000000010c	0000000000000108	0000000000000104	0000000000000100	00000000000000fc	                   9
# 1555000	00000000000000fc	0000000000000000	0000000000000000	0000000000000104	0000000000000100	18446744073709551612
# 1565000	0000000000000100	00000000000000fc	0000000000000000	0000000000000000	0000000000000104	                   x
# 1575000	0000000000000104	0000000000000100	00000000000000fc	0000000000000000	0000000000000000	                   0
# 1585000	0000000000000108	0000000000000104	0000000000000100	00000000000000fc	0000000000000000	                   0
# 1595000	000000000000010c	0000000000000108	0000000000000104	0000000000000100	00000000000000fc	                  10
# 1605000	00000000000000fc	0000000000000000	0000000000000000	0000000000000104	0000000000000100	18446744073709551611
# 1615000	0000000000000100	00000000000000fc	0000000000000000	0000000000000000	0000000000000104	                   x
# 1625000	0000000000000104	0000000000000100	00000000000000fc	0000000000000000	0000000000000000	                   0
# 1635000	0000000000000108	0000000000000104	0000000000000100	00000000000000fc	0000000000000000	                   0
# 1645000	000000000000010c	0000000000000108	0000000000000104	0000000000000100	00000000000000fc	                  11
# 1655000	0000000000000110	000000000000010c	0000000000000108	0000000000000104	0000000000000100	18446744073709551610
# 1665000	0000000000000114	0000000000000110	000000000000010c	0000000000000108	0000000000000104	                   x
# 1675000	0000000000000118	0000000000000114	0000000000000110	000000000000010c	0000000000000108	18446744073709551610
# 1685000	000000000000011c	0000000000000118	0000000000000114	0000000000000110	000000000000010c	                   0
# 1695000	0000000000000120	000000000000011c	0000000000000118	0000000000000114	0000000000000110	                   1
# 1705000	0000000000000124	0000000000000120	000000000000011c	0000000000000118	0000000000000114	                   5
# 1715000	0000000000000128	0000000000000124	0000000000000120	000000000000011c	0000000000000118	                   1
# 1725000	0000000000000118	0000000000000000	0000000000000000	0000000000000120	000000000000011c	                   2
# 1735000	000000000000011c	0000000000000118	0000000000000000	0000000000000000	0000000000000120	                   x
# 1745000	0000000000000120	000000000000011c	0000000000000118	0000000000000000	0000000000000000	                   0
# 1755000	0000000000000124	0000000000000120	000000000000011c	0000000000000118	0000000000000000	                   0
# 1765000	0000000000000128	0000000000000124	0000000000000120	000000000000011c	0000000000000118	                   2
# 1775000	0000000000000118	0000000000000000	0000000000000000	0000000000000120	000000000000011c	                   3
# 1785000	000000000000011c	0000000000000118	0000000000000000	0000000000000000	0000000000000120	                   x
# 1795000	0000000000000120	000000000000011c	0000000000000118	0000000000000000	0000000000000000	                   0
# 1805000	0000000000000124	0000000000000120	000000000000011c	0000000000000118	0000000000000000	                   0
# 1815000	0000000000000128	0000000000000124	0000000000000120	000000000000011c	0000000000000118	                   3
# 1825000	0000000000000118	0000000000000000	0000000000000000	0000000000000120	000000000000011c	                   4
# 1835000	000000000000011c	0000000000000118	0000000000000000	0000000000000000	0000000000000120	                   x
# 1845000	0000000000000120	000000000000011c	0000000000000118	0000000000000000	0000000000000000	                   0
# 1855000	0000000000000124	0000000000000120	000000000000011c	0000000000000118	0000000000000000	                   0
# 1865000	0000000000000128	0000000000000124	0000000000000120	000000000000011c	0000000000000118	                   4
# 1875000	000000000000012c	0000000000000128	0000000000000124	0000000000000120	000000000000011c	                   5
# 1885000	0000000000000130	000000000000012c	0000000000000128	0000000000000124	0000000000000120	                   x
# 1895000	0000000000000134	0000000000000130	000000000000012c	0000000000000128	0000000000000124	                   5
# 1905000	0000000000000138	0000000000000134	0000000000000130	000000000000012c	0000000000000128	                   0
# 1915000	000000000000013c	0000000000000138	0000000000000134	0000000000000130	000000000000012c	                   1
# 1925000	0000000000000140	000000000000013c	0000000000000138	0000000000000134	0000000000000130	                   5
# 1935000	0000000000000144	0000000000000140	000000000000013c	0000000000000138	0000000000000134	                   1
# 1945000	0000000000000134	0000000000000000	0000000000000000	000000000000013c	0000000000000138	                   4
# 1955000	0000000000000138	0000000000000134	0000000000000000	0000000000000000	000000000000013c	                   x
# 1965000	000000000000013c	0000000000000138	0000000000000134	0000000000000000	0000000000000000	                   0
# 1975000	0000000000000140	000000000000013c	0000000000000138	0000000000000134	0000000000000000	                   0
# 1985000	0000000000000144	0000000000000140	000000000000013c	0000000000000138	0000000000000134	                   2
# 1995000	0000000000000134	0000000000000000	0000000000000000	000000000000013c	0000000000000138	                   3
# 2005000	0000000000000138	0000000000000134	0000000000000000	0000000000000000	000000000000013c	                   x
# 2015000	000000000000013c	0000000000000138	0000000000000134	0000000000000000	0000000000000000	                   0
# 2025000	0000000000000140	000000000000013c	0000000000000138	0000000000000134	0000000000000000	                   0
# 2035000	0000000000000144	0000000000000140	000000000000013c	0000000000000138	0000000000000134	                   3
# 2045000	0000000000000134	0000000000000000	0000000000000000	000000000000013c	0000000000000138	                   2
# 2055000	0000000000000138	0000000000000134	0000000000000000	0000000000000000	000000000000013c	                   x
# 2065000	000000000000013c	0000000000000138	0000000000000134	0000000000000000	0000000000000000	                   0
# 2075000	0000000000000140	000000000000013c	0000000000000138	0000000000000134	0000000000000000	                   0
# 2085000	0000000000000144	0000000000000140	000000000000013c	0000000000000138	0000000000000134	                   4
# 2095000	0000000000000134	0000000000000000	0000000000000000	000000000000013c	0000000000000138	                   1
# 2105000	0000000000000138	0000000000000134	0000000000000000	0000000000000000	000000000000013c	                   x
# 2115000	000000000000013c	0000000000000138	0000000000000134	0000000000000000	0000000000000000	                   0
# 2125000	0000000000000140	000000000000013c	0000000000000138	0000000000000134	0000000000000000	                   0
# 2135000	0000000000000144	0000000000000140	000000000000013c	0000000000000138	0000000000000134	                   5
# 2145000	0000000000000148	0000000000000144	0000000000000140	000000000000013c	0000000000000138	                   0
# 2155000	000000000000014c	0000000000000148	0000000000000144	0000000000000140	000000000000013c	                   x
# 2165000	0000000000000150	000000000000014c	0000000000000148	0000000000000144	0000000000000140	                   0
# 2175000	0000000000000154	0000000000000150	000000000000014c	0000000000000148	0000000000000144	                   0
# 2185000	0000000000000158	0000000000000154	0000000000000150	000000000000014c	0000000000000148	                   5
# 2195000	000000000000015c	0000000000000158	0000000000000154	0000000000000150	000000000000014c	                   0
# 2205000	0000000000000160	000000000000015c	0000000000000158	0000000000000154	0000000000000150	                   1
# 2215000	0000000000000150	0000000000000000	0000000000000000	0000000000000158	0000000000000154	                   1
# 2225000	0000000000000154	0000000000000150	0000000000000000	0000000000000000	0000000000000158	                   x
# 2235000	0000000000000158	0000000000000154	0000000000000150	0000000000000000	0000000000000000	                   0
# 2245000	000000000000015c	0000000000000158	0000000000000154	0000000000000150	0000000000000000	                   0
# 2255000	0000000000000160	000000000000015c	0000000000000158	0000000000000154	0000000000000150	                   2
# 2265000	0000000000000150	0000000000000000	0000000000000000	0000000000000158	0000000000000154	                   2
# 2275000	0000000000000154	0000000000000150	0000000000000000	0000000000000000	0000000000000158	                   x
# 2285000	0000000000000158	0000000000000154	0000000000000150	0000000000000000	0000000000000000	                   0
# 2295000	000000000000015c	0000000000000158	0000000000000154	0000000000000150	0000000000000000	                   0
# 2305000	0000000000000160	000000000000015c	0000000000000158	0000000000000154	0000000000000150	                   3
# 2315000	0000000000000150	0000000000000000	0000000000000000	0000000000000158	0000000000000154	                   3
# 2325000	0000000000000154	0000000000000150	0000000000000000	0000000000000000	0000000000000158	                   x
# 2335000	0000000000000158	0000000000000154	0000000000000150	0000000000000000	0000000000000000	                   0
# 2345000	000000000000015c	0000000000000158	0000000000000154	0000000000000150	0000000000000000	                   0
# 2355000	0000000000000160	000000000000015c	0000000000000158	0000000000000154	0000000000000150	                   4
# 2365000	0000000000000150	0000000000000000	0000000000000000	0000000000000158	0000000000000154	                   4
# 2375000	0000000000000154	0000000000000150	0000000000000000	0000000000000000	0000000000000158	                   x
# 2385000	0000000000000158	0000000000000154	0000000000000150	0000000000000000	0000000000000000	                   0
# 2395000	000000000000015c	0000000000000158	0000000000000154	0000000000000150	0000000000000000	                   0
# 2405000	0000000000000160	000000000000015c	0000000000000158	0000000000000154	0000000000000150	                   5
# 2415000	0000000000000164	0000000000000160	000000000000015c	0000000000000158	0000000000000154	                   5
# 2425000	0000000000000168	0000000000000164	0000000000000160	000000000000015c	0000000000000158	                   x
# 2435000	000000000000016c	0000000000000168	0000000000000164	0000000000000160	000000000000015c	                   5
# 2445000	0000000000000170	000000000000016c	0000000000000168	0000000000000164	0000000000000160	                   0
# 2455000	0000000000000174	0000000000000170	000000000000016c	0000000000000168	0000000000000164	                   2
# 2465000	0000000000000178	0000000000000174	0000000000000170	000000000000016c	0000000000000168	                   3
# 2475000	000000000000017c	0000000000000178	0000000000000174	0000000000000170	000000000000016c	                   1
# 2485000	000000000000016c	0000000000000000	0000000000000000	0000000000000174	0000000000000170	                   3